<?xml version="1.0"?>
<VTKFile type="UnstructuredGrid" version="0.1" byte_order="LittleEndian" header_type="UInt32" compressor="vtkZLibDataCompressor">
  <UnstructuredGrid>
    <Piece NumberOfPoints="26668" NumberOfCells="13848">
      <PointData Scalars="Stress:von Mises">
        <DataArray type="Float32" Name="Stress:von Mises" format="ascii" RangeMin="5.8201177211e-10" RangeMax="1.511515975">
          7.905383427e-06 2.1088755602e-05 1.8682363589e-05 7.615704817e-06 2.5393767373e-06 2.8510316952e-06
          6.3052135602e-07 6.0081822539e-07 3.5106297673e-06 3.5361542814e-06 9.7851007013e-06 9.2936534202e-06
          0.00045412007603 0.0016204080312 0.0020036587957 0.00041493025492 0.00077904941281 0.00071976630716
          0.00021763634868 0.00020034186309 7.8878481872e-05 6.66213964e-05 0.00023039786902 0.00028620561352
          0.24449518323 0.33332926035 0.37364584208 0.2402934581 0.17865341902 0.1853813231
          0.058495622128 0.074702575803 0.11324273795 0.12869781256 0.28021660447 0.26917457581
          0.2465056628 0.22700466216 2.1215385004e-06 4.8397794217e-07 6.093060847e-07 2.583693913e-06
          4.3681452553e-06 4.3617205847e-06 8.4029761638e-07 8.1851158029e-07 0.019471373409 0.0048055844381
          0.00538246613 0.017831685022 0.029913216829 0.030822049826 0.16994862258 0.16872492433
          0.29349756241 0.29011186957 0.093674086034 0.094016619027 0.013609575108 0.01283533778
          0.24435347319 0.24472402036 0.24751894176 0.24016515911 0.12761121988 0.1229057163
          0.031691696495 0.046616565436 0.19294212759 0.18258842826 0.22041168809 0.2414624542
          0.097231246531 0.070274472237 0.11170776188 0.16995082796 0.16730083525 0.067193225026
          0.23881010711 0.24859061837 0.21822859347 0.23449790478 0.33340334892 0.30764076114
          0.33786207438 0.31369850039 0.36877888441 0.4466753006 0.45956093073 0.28046607971
          0.78653723001 0.84159344435 0.57465952635 0.57428556681 0.076743520796 0.086323574185
          0.063754357398 0.068988546729 0.42304429412 0.33572074771 0.0089936098084 0.0069919126108
          0.0072627654299 0.0075385184027 0.022738847882 0.021615361795 0.15520429611 0.15199939907
          0.2936796248 0.29975503683 0.10343187302 0.091407641768 0.016548642889 0.016866991296
          0.096719220281 0.31053709984 0.30931949615 0.10295239091 0.01273832377 0.01384572126
          0.016491979361 0.016575919464 0.022598763928 0.021983202547 0.027891149744 0.027031121776
          0.26763990521 0.26456391811 0.44008663297 0.29512754083 0.27624210715 0.44134101272
          0.32517910004 0.36386027932 0.025541920215 0.023958748206 0.02194455266 0.020315386355
          0.0018072332023 0.0017930549802 0.00054184248438 0.0004416789161 0.0040518525057 0.0041004451923
          0.0084014413878 0.0096217282116 0.44900223613 0.86843192577 0.9065130949 0.45628106594
          0.3545114696 0.31095793843 0.39201676846 0.36333292723 0.87090808153 0.84795790911
          0.78913766146 0.79925006628 1.2408320904 1.2192071676 0.6497477293 0.35138955712
          0.34643208981 0.66852629185 0.3056743741 0.33478981256 0.20937922597 0.22951313853
          0.10394809395 0.10757678002 0.039447136223 0.038590524346 0.076497092843 0.074010238051
          0.3557060957 0.14771105349 0.14552801847 0.36673638225 0.27159303427 0.24617014825
          0.16213387251 0.16414265335 0.058813914657 0.078597553074 0.078265398741 0.099612109363
          0.18788075447 0.17039552331 0.037839170545 0.022317515686 0.021057873964 0.037445791066
          0.22669033706 0.20446577668 0.34957927465 0.34949052334 0.025088481605 0.021806087345
          0.0089465472847 0.011113008484 0.012235863134 0.0086926966906 0.024601299316 0.025001157075
          0.1887973398 0.16179278493 0.29672780633 0.33191910386 0.13817532361 0.11834239215
          0.016565412283 0.016803255305 0.93956047297 0.66646832228 0.7156457305 0.96985197067
          0.38869485259 0.3966370523 0.11607261747 0.10247479379 0.10733368993 0.13080079854
          0.30138352513 0.28871259093 0.19976943731 0.21946950257 0.33573928475 0.27260088921
          0.22306516767 0.32454586029 0.32514864206 0.3098705411 0.15757410228 0.18475133181
          0.067631691694 0.059516880661 0.093011111021 0.11203371733 0.33879351616 0.31692677736
          0.23217490315 0.2225792706 0.2245143801 0.21314899623 0.23772072792 0.21714128554
          0.42105552554 0.3585498035 0.70493900776 0.72621560097 0.72228819132 0.69469887018
          0.93019318581 0.79779797792 1.0218994617 1.1640557051 0.89634394646 0.96481359005
          0.70533406734 0.76434588432 0.98053497076 0.92217373848 5.7721103076e-05 0.00011253700359
          0.00010327468772 5.3840434703e-05 0.00013030829723 0.00013046831009 3.48020003e-05 3.4249165765e-05
          1.2437554687e-05 1.3640918951e-05 1.3131065316e-05 1.2921521375e-05 2.2690855417e-08 5.7687376653e-08
          4.3956696061e-08 1.5561699485e-08 5.5871338667e-09 8.8929645869e-09 5.7573132928e-09 1.1958783297e-08
          4.3481152012e-09 2.2043872505e-08 6.6325309689e-09 1.977444164e-08 7.3677970391e-09 3.4602759769e-08
          7.621237863e-09 1.7308163791e-08 6.5675180849e-09 9.1825720361e-09 6.0481868402e-09 5.2347082224e-09
          4.1316052801e-09 1.2633490698e-08 5.0371014026e-09 4.6523842556e-09 5.4790456616e-09 7.1162840065e-09
          6.810162656e-09 5.3787414522e-09 2.6264133979e-08 2.455819903e-08 4.2574200165e-08 4.7447464624e-08
          3.6013420868e-07 3.5033909285e-07 2.9962978942e-07 2.6482948101e-07 4.4224356088e-07 4.5474507715e-07
          2.7697220162e-07 2.9200063523e-07 2.0642497134e-07 2.0194268302e-07 2.4655773245e-07 2.5338712817e-07
          4.464672827e-07 4.4195951432e-07 0.092483647168 0.098975285888 0.047459930182 0.045217715204
          0.020341623574 0.018600307405 0.027166768909 0.025635898113 0.055544715375 0.027725793421
          0.048018809408 0.027641320601 0.20587785542 0.13860242069 0.16947351396 0.12539283931
          0.14611271024 0.10620313883 0.44299224019 0.47522997856 0.0012909917859 0.0016037948662
          0.0006545537035 0.00059152691392 3.4202152165e-05 3.537982775e-05 1.7129033949e-05 2.0831346774e-05
          2.5448830456e-06 2.750836984e-06 9.2897278137e-07 7.6927472037e-07 2.5697709134e-06 3.0805424558e-06
          3.25978408e-06 3.338038141e-06 1.1458673725e-06 1.3478691017e-06 3.3234548482e-06 3.3357039229e-06
          3.8738662624e-06 2.9971481581e-06 9.6578276043e-07 1.1511409639e-06 2.8953804758e-06 3.1511169709e-06
          3.3766393699e-06 2.4032599413e-06 9.4555707619e-07 7.2890503588e-07 2.677905286e-06 2.8394536002e-06
          1.8008551706e-05 1.5866440663e-05 4.0876162529e-05 3.6717348848e-05 0.00033164414344 0.0003545829677
          0.00047075614566 0.00042887535528 9.4683525731e-07 9.5583595794e-07 4.393695292e-07 4.041107502e-07
          1.3298748854e-05 1.7516251319e-05 1.8177241145e-05 1.6734948076e-05 1.6911317289e-05 1.3397072507e-05
          5.5516889006e-06 5.4678148445e-06 5.2602781579e-06 5.5028749557e-06 2.6646348488e-06 2.6311490728e-06
          2.2500032628e-06 2.053549224e-06 1.9703381327e-07 3.6993588992e-07 1.046069201e-06 2.2247583331e-07
          4.2315045334e-07 9.7648887731e-07 5.1079399555e-07 5.0117859018e-07 5.6615857602e-07 5.065517712e-07
          2.1986388674e-06 1.0739781828e-06 2.0497268451e-06 1.2328705452e-06 3.0058374705e-06 3.1914569263e-06
          2.7792789297e-06 3.3915682707e-06 1.335760885e-06 1.6745418634e-06 2.0062973363e-06 2.2782335236e-06
          2.8225269944e-06 1.9948074623e-06 1.4184581687e-06 1.9172757675e-06 2.2756671569e-06 2.8563169963e-06
          5.0608377933e-06 3.5050763927e-06 2.5075519261e-06 4.1048456296e-06 0.00039577975986 0.00037196429912
          0.00033221783815 0.00029578214162 0.00026495865313 0.00023348304967 0.00021550933889 0.00019443020574
          0.00014552011271 6.3416817284e-05 0.00047485943651 0.0021381967235 0.0021838140674 0.0022088310216
          0.0026214818936 0.00036403836566 0.0003499899758 0.00032500480302 0.00030666909879 0.00029264291516
          0.00028346170438 0.00027929947828 0.00027809440508 0.00025716467644 0.00015281410015 0.00013998372015
          0.00045178580331 0.00033703545341 0.00040641913074 0.00036804156844 0.00025546550751 0.00033745955443
          0.00015337644436 0.00034067343222 0.00046058406588 0.00040742312558 0.00013604061678 9.051951929e-05
          0.00012152929412 0.00011444584379 5.6711138313e-05 5.614895781e-05 3.7814676034e-05 6.0754304286e-05
          4.7206343879e-05 3.2711355743e-05 2.804659016e-05 2.5480690965e-05 2.3866992706e-05 2.2918975446e-05
          2.2504911612e-05 2.286165909e-05 2.5489243853e-05 2.6171612262e-05 3.506783105e-05 3.0441304261e-05
          2.7275491448e-05 2.5139448553e-05 2.3418602723e-05 2.2197491489e-05 2.1695270334e-05 2.4219640181e-05
          0.00023375594174 0.00025698935497 0.00026891875314 0.00020674335246 0.00099134328775 0.00055442535086
          0.0012409884948 0.00070297624916 0.29801174998 0.28668469191 0.27641898394 0.27824765444
          0.23328383267 0.21892724931 0.21498703957 0.24376967549 0.069338448346 0.11826366931
          0.24754463136 0.24244356155 0.22409172356 0.22523804009 0.098208844662 0.10233455151
          0.11346842349 0.080057360232 0.023812660947 0.018189201131 0.10616784543 0.087177574635
          0.078844718635 0.12709327042 0.2628915906 0.25168919563 0.21983988583 0.2219786644
          0.049900922924 0.15023466945 0.061520524323 0.16532488167 0.27110376954 0.28161585331
          0.31361487508 0.27642455697 0.3489446342 0.35254567862 2.8061100465e-07 7.5949253642e-07
          3.9960588083e-07 4.3921895099e-07 4.614923057e-07 4.7417128712e-07 4.2477901729e-07 7.8916440316e-07
          1.5318198621e-06 1.1364663806e-06 1.1195786556e-06 1.3752866153e-06 3.7990964756e-06 4.1628218241e-06
          4.0389722926e-06 3.6470257783e-06 1.9890574094e-06 2.0726001821e-06 7.3753659535e-07 6.9928955782e-07
          5.999488053e-07 6.9497752975e-07 8.9343522802e-08 4.350647842e-08 3.7024541655e-08 2.3273361904e-08
          1.3510187102e-07 1.0290569463e-07 3.5461631853e-08 4.2607645412e-08 2.7834603955e-08 1.3135215227e-07
          0.0041025616229 0.0095092309639 0.0085280053318 0.0061061284505 0.0071268975735 0.0040856408887
          0.018331557512 0.013517913409 0.015108717605 0.016465950757 0.034038875252 0.031275637448
          0.03081061691 0.029944110662 0.056701287627 0.027269756421 0.0090666851029 0.0040440973826
          0.009989711456 0.014468124136 0.017737884074 0.020861545578 0.023565752432 0.026222616434
          0.028511606157 0.029961895198 0.052394676954 0.027431989089 0.008477515541 0.0042175799608
          0.010306018405 0.014534411952 0.017762156203 0.020729672164 0.023599846289 0.026190200821
          0.028295047581 0.029664162546 0.19585736096 0.19542148709 0.19074559212 0.16744457185
          0.28133675456 0.2806020081 0.26193901896 0.26163515449 0.25775828958 0.26232820749
          0.1190200448 0.10164299607 0.10538706183 0.092688448727 0.013682160527 0.0090407785028
          0.0052451589145 0.0034867206123 0.0057280217297 0.0098725408316 0.013009525836 0.014529008418
          0.011576371267 0.012322681025 0.041855812073 0.013294793665 0.0096454275772 0.0054845251143
          0.0030829890165 0.0056505110115 0.009260407649 0.012739960104 0.014023943804 0.010871655308
          0.010532070883 0.044291380793 0.014253747649 0.017055051401 0.016566937789 0.015403167345
          0.17358018458 0.17809672654 0.18116182089 0.1820448786 0.16642791033 0.11884957552
          0.12248015404 0.15009006858 0.063237190247 0.074457496405 0.17355890572 0.068664953113
          0.076039403677 0.17689010501 0.16154102981 0.15692856908 0.16266837716 0.14331021905
          0.044565405697 0.040298614651 0.062947511673 0.044579613954 0.061520308256 0.06165747717
          0.15083433688 0.10676001012 0.13047070801 0.17177535594 0.15519759059 0.13525280356
          0.12928190827 0.17564167082 0.047945164144 0.10196489096 0.12570476532 0.12435787171
          0.044856697321 0.10214604437 0.12332543731 0.13216623664 0.10037074238 0.11211938411
          0.094261825085 0.10469739884 0.12848693132 0.12231320888 0.24612441659 0.21415694058
          0.18113403022 0.20524118841 0.13660998642 0.11605177075 0.12213256955 0.14111812413
          0.056750524789 0.045885279775 0.15196561813 0.13851669431 0.1123740375 0.14678472281
          0.17771200836 0.21487614512 0.26184660196 0.27409857512 0.27456250787 0.24996306002
          0.28578060865 0.3003270328 0.29725724459 0.26125943661 0.26535770297 0.286093086
          0.21963305771 0.14639410377 0.15721155703 0.23377110064 0.43713960052 0.4117244482
          0.35832050443 0.40616160631 0.35634195805 0.35086369514 0.33610290289 0.3869086802
          0.70732104778 0.62383508682 0.51266330481 0.37924239039 0.25849610567 0.12988168001
          0.12192922086 0.69874060154 0.60992115736 0.48361578584 0.38654574752 0.23831991851
          0.10296162963 0.11688626558 0.79913038015 0.7612361908 0.75187218189 0.78353685141
          0.40426290035 0.34252935648 0.40024733543 0.36003908515 0.061572227627 0.053117964417
          0.038404744118 0.039402276278 0.035296525806 0.041143998504 0.08950612694 0.1053307727
          0.10187957436 0.090468861163 0.27435591817 0.26231592894 0.20409335196 0.12808215618
          0.067147433758 0.032073106617 0.053105089813 0.26803001761 0.25459951162 0.19326433539
          0.1221536994 0.065260797739 0.030797140673 0.052839197218 0.31281024218 0.26491975784
          0.27845647931 0.23309835792 0.54845440388 0.57485729456 0.0017953733914 0.0088447108865
          0.0077614197508 0.0093842744827 0.0064159482718 0.0015690434957 0.010105873458 0.008532830514
          0.0090627605096 0.010614124127 0.025305226445 0.027394967154 0.025969192386 0.026407085359
          0.07602673769 0.043321885169 0.02355613932 0.012019015849 0.0050911619328 0.0058198343031
          0.0089691830799 0.012943346053 0.017094321549 0.020895835012 0.024082371965 0.072786130011
          0.043530140072 0.022752534598 0.010677496903 0.0047936690971 0.0053510372527 0.00902919285
          0.013015849516 0.017118303105 0.020809100941 0.023996358737 0.19817227125 0.16965614259
          0.17163902521 0.18846184015 0.27820965648 0.27742764354 0.27416014671 0.26600673795
          0.26422274113 0.25854682922 0.094634145498 0.10699149221 0.11793907732 0.098900161684
          0.018444662914 0.01529114414 0.0092665664852 0.0050585819408 0.0052530607209 0.0090621188283
          0.010968613438 0.0096273468807 0.011378430761 0.052259135991 0.017990589142 0.015156907961
          0.0085293343291 0.0046734926291 0.0051306514069 0.0086681125686 0.011213266291 0.009015400894
          0.010500482284 0.046737536788 0.021499834955 0.023454064503 0.023529363796 0.021258475259
          0.28593251109 0.29803216457 0.2930521965 0.2760668993 0.11048323661 0.10869172215
          0.11522775888 0.10969824344 0.0043454281986 0.0074962144718 0.010923058726 0.013978771865
          0.017743399367 0.021021515131 0.024413656443 0.025959659368 0.026094913483 0.021344861016
          0.01406798698 0.035778783262 0.0043762964197 0.0070902924053 0.010787597857 0.014500218444
          0.018053332344 0.021411001682 0.024218209088 0.026468373835 0.026392316446 0.021713558584
          0.011731369421 0.050217427313 0.0060116769746 0.0033937415574 0.003694802057 0.0056749689393
          0.010744092055 0.0061990758404 0.0098637240008 0.0088814003393 0.0070242234506 0.0064104767516
          0.01608152315 0.015014681965 0.015106451698 0.017052970827 0.025426184759 0.023865431547
          0.022485613823 0.024315061048 0.029613604769 0.003692507511 0.010883473791 0.017017250881
          0.020772406831 0.022177154198 0.023007005453 0.023519925773 0.02390893735 0.024164069444
          0.024132769555 0.02370400168 0.023383244872 0.01477773115 0.0049702757969 0.011906991713
          0.018342133611 0.021522726864 0.022949077189 0.023580923676 0.023885080591 0.024044949561
          0.024046281353 0.023777540773 0.02307793498 0.022133139893 0.30716094375 0.24548889697
          0.27167335153 0.26209691167 0.33602580428 0.33015850186 0.42977949977 0.35031598806
          0.36202535033 0.37238895893 0.36018916965 0.36082959175 0.3512648046 0.35402134061
          0.017619816586 0.019399825484 0.020440103486 0.021118894219 0.02171035111 0.022079637274
          0.022328075022 0.022353265435 0.021164808422 0.018494812772 0.013937631622 0.016611427069
          0.03242579475 0.017549108714 0.018958356231 0.020204497501 0.021169783548 0.021913303062
          0.022573662922 0.023061456159 0.023231927305 0.022282157093 0.019918976352 0.014824016951
          0.012671120465 0.045634321868 0.02020123601 0.017181528732 0.016747979447 0.019364673644
          0.014722064137 0.012294991873 0.012411237694 0.012677028775 0.0023997763637 0.0020604503807
          0.0011309710098 0.00079939351417 0.00070100190351 0.00087777880253 0.00032278639264 0.00038722791942
          0.00032717036083 0.00039873109199 0.00072409282438 0.00028547953116 0.0004021160712 0.00041042550583
          0.00036240025656 0.00034531357232 0.00031911642873 0.00030262011569 0.00028755745734 0.00028223224217
          0.00029886612901 0.00049812643556 0.0003492453252 0.00048584674369 0.00048067537136 0.00043329133769
          0.0003887883795 0.00034877649159 0.00031364365714 0.00028295590892 0.00026024162071 0.0002561256988
          0.0046038902365 0.0055511356331 0.004398805555 0.0065329656936 0.012390334159 0.017289359123
          0.015395066701 0.014914390631 0.061109252274 0.046887714416 0.25231063366 0.73757767677
          0.63927775621 0.63484174013 0.69308054447 0.24630959332 0.28921502829 0.20599010587
          0.2490811348 0.26173114777 0.24753247201 0.20741191506 0.18858347833 0.26245868206
          0.82135975361 0.81872361898 0.72187185287 0.58226066828 0.45472109318 0.31163239479
          0.18478068709 0.7890651226 0.79143869877 0.68351525068 0.59213542938 0.4377502799
          0.30560871959 0.1724704653 0.53402513266 0.72913509607 0.64803040028 0.54233074188
          0.52801549435 0.48585018516 0.77189469337 0.82912957668 0.8735357523 0.7585670352
          0.83377665281 0.83612686396 0.82644051313 0.73745024204 1.059435606 1.0292549133
          0.94566297531 0.8218972683 0.69205695391 0.56848454475 1.121861577 1.0314576626
          0.9501568079 0.82704228163 0.69225281477 0.52403390408 1.2264991999 1.1266751289
          1.1502169371 1.2416951656 0.56169068813 0.35349932313 0.2736338377 0.29642692208
          0.28905716538 0.56585115194 0.60089439154 0.63398581743 0.63719111681 0.60824620724
          0.3145532012 0.30087310076 0.31096988916 0.29865315557 0.20288899541 0.15199230611
          0.10396564007 0.044885534793 0.022612273693 0.071880452335 0.091945827007 0.1965289712
          0.14969354868 0.098500698805 0.040651381016 0.023457031697 0.067372351885 0.080128036439
          0.24600027502 0.23948279023 0.23640610278 0.26138502359 0.096202462912 0.096732348204
          0.10183510184 0.094463400543 0.011696228758 0.0096052074805 0.036771763116 0.030949665233
          0.033014323562 0.038883142173 0.078753396869 0.085841953754 0.083009846509 0.076529614627
          0.090279608965 0.065177865326 0.031329333782 0.012640953064 0.022183261812 0.040330186486
          0.056577857584 0.070572257042 0.085242897272 0.061130829155 0.028846913949 0.011786520481
          0.020467614755 0.041516277939 0.059159651399 0.07395298034 0.3062338829 0.21537341177
          0.21290929615 0.19672244787 0.20165479183 0.30750909448 0.3141939342 0.29766151309
          0.3051174283 0.29418385029 0.24136123061 0.21133120358 0.24315783381 0.23929937184
          0.027826962993 0.19985094666 0.036226607859 0.20304273069 0.19327236712 0.19216530025
          0.21681784093 0.21772688627 0.073737330735 0.055218830705 0.098707601428 0.06951931864
          0.015394904651 0.0089996000752 0.091591961682 0.05698979646 0.067622184753 0.086044743657
          0.18908153474 0.19432449341 0.19274972379 0.18842589855 0.048438984901 0.092345170677
          0.13846544921 0.046236973256 0.090851701796 0.14412176609 0.02298329398 0.020139703527
          0.020905993879 0.022049183026 0.050212819129 0.053712580353 0.05083418265 0.04898615554
          0.052573036402 0.038896635175 0.014411615208 0.0073362053372 0.01786120981 0.026194348931
          0.033969212323 0.041050743312 0.046111550182 0.057441528887 0.039287235588 0.012757074088
          0.0072539648972 0.016594203189 0.026585144922 0.033936079592 0.04142632708 0.046047043055
          0.21172165871 0.21838000417 0.18795488775 0.20189447701 0.38325738907 0.38714528084
          0.36628293991 0.39280211926 0.40939050913 0.36223894358 0.044426865876 0.026404857635
          0.014431869611 0.014529381879 0.029658038169 0.040316715837 0.047497604042 0.049796815962
          0.047005623579 0.0426549986 0.027726843953 0.012627118267 0.014300712384 0.029672998935
          0.040941175073 0.046247687191 0.051338523626 0.049534134567 0.020782526582 0.014333581552
          0.024563059211 0.018021762371 0.0052826106548 0.0036395099014 0.003584675258 0.0095806503668
          0.011734803207 0.0091825099662 0.0023440213408 0.0030011693016 0.0097425431013 0.0090810069814
          0.010761603713 0.013225483708 0.029808346182 0.029647124931 0.031729210168 0.028288897127
          0.064353749156 0.048318196088 0.022704668343 0.0098388437182 0.0053344452754 0.0085340291262
          0.013462907635 0.018811346963 0.023493247107 0.027386251837 0.070906899869 0.046600349247
          0.021037627012 0.0095578366891 0.0048472336493 0.0082923378795 0.013482555747 0.018951859325
          0.023227160797 0.02722325176 0.14440472424 0.17608632147 0.17677688599 0.14937350154
          0.29296889901 0.30549398065 0.29621642828 0.29572483897 0.30000770092 0.28769421577
          0.11586335301 0.14080528915 0.13689634204 0.11809975654 0.016379343346 0.0090953968465
          0.0043366337195 0.010546153411 0.018250249326 0.022865826264 0.021776396781 0.017036134377
          0.057117205113 0.015582197346 0.0087481895462 0.0037214718759 0.011386525817 0.016681747511
          0.023063853383 0.021298294887 0.014112347737 0.037045925856 0.01911717467 0.02373287268
          0.024344330654 0.01831628941 0.55553764105 0.45120230317 0.50797528028 0.55088305473
          0.71584129333 0.69245284796 0.62053883076 0.70436096191 0.50675171614 0.61127829552
          0.66725456715 0.65810483694 0.62058573961 0.4946295023 0.64698773623 0.6780564189
          0.65973186493 0.6051312089 0.63750249147 0.75897520781 0.78907233477 0.64715129137
          0.090208925307 0.12941931188 0.22251857817 0.31719440222 0.30746436119 0.23992563784
          0.30912193656 0.38135662675 0.38908031583 0.29080966115 0.29034039378 0.2744679749
          0.22048507631 0.17009833455 0.29171776772 0.27537420392 0.22265729308 0.13640746474
          0.33409249783 0.31111091375 0.30364593863 0.3226531148 0.18216474354 0.13549870253
          0.14808630943 0.18723617494 0.099503204226 0.06985373795 0.3253915906 0.2551791966
          0.26479464769 0.27173852921 0.27186340094 0.33500099182 0.30210509896 0.26138085127
          0.26182752848 0.29473173618 0.28154942393 0.24630282819 0.23816171288 0.29204490781
          0.17755760252 0.13776513934 0.28870618343 0.31361219287 0.30629128218 0.27466890216
          0.098388031125 0.09082569927 0.10930817574 0.092914037406 0.025180030614 0.026865392923
          0.099133059382 0.078890703619 0.11510816962 0.12076234072 0.2391243428 0.28333568573
          0.27672588825 0.28804537654 0.1236243397 0.1194254607 0.21637392044 0.24255922437
          0.25168141723 0.24094128609 0.18832933903 0.18849658966 0.1812043637 0.18800207973
          0.20992977917 0.1600355655 0.16121517122 0.1912201941 0.31123819947 0.29753485322
          0.2799898088 0.29501217604 0.22460578382 0.62501358986 0.50704199076 0.47941952944
          0.51045167446 0.22452393174 0.65370094776 0.47447392344 0.50440526009 0.60275620222
          0.66892999411 0.70592391491 0.58440285921 0.6679238677 1.1092367172 1.0850787163
          1.0012691021 0.90135407448 0.77504980564 0.65780705214 1.1545974016 1.1030726433
          1.0111875534 0.90725654364 0.7682723403 0.64920920134 1.1347043514 1.2099337578
          1.1321765184 1.0749925375 0.82447695732 0.93791520596 0.8566622138 0.92642217875
          0.93320244551 0.85530477762 0.91335821152 1.0017492771 1.0031573772 0.88820451498
          0.81379830837 0.83102840185 0.82705241442 0.77260017395 0.67780154943 0.81733185053
          0.84661012888 0.83940702677 0.77590870857 0.68740308285 0.91107237339 0.77872657776
          0.82857859135 0.88439208269 2.1429677872e-05 2.0068779122e-05 1.8535647541e-05 1.7501168259e-05
          1.7014448531e-05 1.7366159227e-05 1.8997599909e-05 2.4606944862e-05 8.515821537e-05 9.6532079624e-05
          8.0310150224e-05 0.00010820633179 2.1092400857e-05 1.9856957806e-05 1.8442480723e-05 1.8144763089e-05
          1.8072500097e-05 1.8856038878e-05 2.109808338e-05 2.7828491511e-05 3.3793763578e-05 2.5661185646e-05
          2.0798610421e-05 3.0883598811e-05 9.0560177341e-05 8.4153180069e-05 7.1511072747e-05 9.5985174994e-05
          7.4223222327e-05 7.7650147432e-05 2.4128479708e-05 2.6819157938e-05 2.5980099963e-05 2.3859125577e-05
          7.3390724538e-06 9.9753078757e-06 8.924620488e-06 7.8102630141e-06 1.4509213315e-06 1.8390510377e-06
          2.2463639198e-06 2.775739631e-06 3.1870749808e-06 3.4417514598e-06 1.424418997e-06 1.7722003349e-06
          2.2372544208e-06 2.7829883038e-06 3.0499788863e-06 4.617234481e-06 1.0013702195e-05 1.0509696949e-05
          1.0786179701e-05 9.3358794402e-06 6.9109948527e-05 2.8788777854e-05 7.2989700129e-05 3.2356969314e-05
          1.590186649e-08 1.1651993148e-08 1.2348293943e-08 1.5404609144e-08 3.6037879347e-09 4.1187946387e-09
          5.0216835135e-09 8.1656938988e-09 3.0710143317e-09 8.1317077516e-09 1.9449897692e-08 1.88535072e-08
          5.1382880173e-09 1.9439367893e-09 9.2148084718e-09 2.1062398048e-08 5.7500058048e-09 8.7400975346e-09
          1.484415435e-07 4.3681865236e-07 1.4996254905e-08 1.9559129782e-07 2.9859455708e-07 6.540245181e-07
          4.2333052619e-09 8.8440312851e-09 3.3152883816e-07 7.5727726312e-08 7.642961819e-09 1.6514951184e-08
          8.6701650304e-09 9.2476275526e-09 1.4746960098e-08 1.7940800845e-08 1.9858470424e-09 5.0006248031e-09
          3.7210146075e-09 3.0514009097e-09 7.9138047226e-09 2.2939373068e-08 1.1618213058e-08 3.306217744e-09
          4.0675400825e-09 6.1453722111e-09 5.307838169e-09 4.0734704498e-09 4.6943027243e-09 3.7372696049e-09
          3.0892561842e-09 3.1311120363e-09 2.7080842013e-09 6.3379941295e-09 1.220480339e-08 6.9335750474e-09
          1.4344119226e-09 5.1313397975e-09 6.0430647153e-09 2.54770538e-09 1.5270982701e-08 1.3820320888e-08
          1.6103037126e-08 1.584489695e-08 1.3017888989e-07 1.1680978673e-07 1.6207579279e-07 1.0213449286e-07
          1.1724027615e-07 1.5462238423e-07 1.6401492076e-07 1.5994505986e-07 1.5729335701e-07 1.4893154798e-07
          3.1985587157e-07 6.3737061851e-08 5.2784056237e-08 3.2470165934e-07 6.3076768697e-08 7.139792757e-08
          3.0827936826e-07 3.1663137179e-07 3.0996818623e-07 3.0473958645e-07 2.2763870788e-07 2.6454762292e-07
          2.4478308092e-07 2.213742647e-07 1.6500115407e-07 1.244983423e-07 1.2439284092e-07 1.3395663245e-07
          2.994904662e-07 3.0453909972e-07 2.7346581533e-07 2.5731799269e-07 3.6621099753e-07 3.4390561154e-07
          3.076842745e-07 3.1540204759e-07 0.15622599423 0.13259452581 0.072571009398 0.034005913883
          0.044744279236 0.026903308928 0.0076286545955 0.023423787206 0.0045314310119 0.012938788161
          0.061361674219 0.14363572001 0.20076644421 0.36057060957 0.30038478971 0.37012812495
          0.19836908579 0.1586920619 0.060022313148 0.036353867501 0.0059181689285 0.0071588614956
          0.0038885180838 0.0026891550515 0.0019504199736 0.0022942444775 0.0066858865321 0.0063534127548
          0.0091443713754 0.0067247161642 0.0018729434814 0.00054115074454 0.00015724459081 5.9489215346e-05
          2.1809621103e-05 8.5511337602e-06 3.1338047393e-06 1.1988464621e-06 0.14248533547 0.12384145707
          0.075321413577 0.035747669637 0.048186976463 0.02776293084 0.011958174407 0.026645874605
          0.0031119042542 0.015237846412 0.06365737319 0.14498074353 0.18943414092 0.36293965578
          0.30589070916 0.36905324459 0.20100305974 0.16271361709 0.054451245815 0.034669354558
          0.0068378364667 0.0068596443161 0.0037918223534 0.0023942443077 0.0018424148438 0.0025468068197
          0.0062900898047 0.0064776800573 0.0090559478849 0.0065908231772 0.0016512151342 0.00051166006597
          0.00014499684039 5.820385195e-05 2.1401714548e-05 8.2424185166e-06 3.2800714962e-06 1.3296230463e-06
          0.060162384063 0.060780797154 0.063806831837 0.053634282202 0.026338370517 0.024826113135
          0.025151310489 0.022238044068 0.014727236703 0.016246780753 0.01501054503 0.01195237413
          0.032269544899 0.030388973653 0.029337173328 0.022467851639 0.174145028 0.19253720343
          0.2708581388 0.29549518228 0.32000130415 0.31147548556 0.3187046051 0.29912233353
          0.30267480016 0.2339181155 0.21841396391 0.13017675281 0.039764981717 0.058968644589
          0.15091466904 0.7026335001 0.48001646996 0.64301389456 0.32125043869 0.40629956126
          0.63876253366 0.63268041611 0.48511841893 0.38533827662 0.32666045427 0.30687251687
          0.30153495073 0.30186191201 0.29154276848 0.27303871512 0.26355209947 0.22978970408
          0.17057165504 0.089371196926 0.14848718047 0.18348246813 0.26127076149 0.2912786603
          0.31747749448 0.30937936902 0.31597355008 0.30031073093 0.30093061924 0.23430088162