<?xml version="1.0"?>
<VTKFile type="UnstructuredGrid" version="0.1" byte_order="LittleEndian" header_type="UInt32" compressor="vtkZLibDataCompressor">
  <UnstructuredGrid>
    <Piece NumberOfPoints="16573" NumberOfCells="8753">
      <PointData Scalars="Stress:von Mises">
        <DataArray type="Float32" Name="Stress:von Mises" format="ascii" RangeMin="2.81920709e-10" RangeMax="1.9228525162">
          0.24566052854 0.25029024482 0.27847635746 0.23442670703 0.26063227654 0.22634845972
          0.17395149171 0.73241204023 0.74558454752 0.14010953903 0.1726783365 0.172062397
          1.2661708593 1.1529456377 0.038454964757 0.00018652400468 0.00019246902957 0.039809413254
          0.0050244405866 0.0048767384142 5.2899431466e-05 5.3680978453e-05 0.16897030175 0.021277308464
          0.01827031374 0.16780950129 0.21207380295 0.21193605661 0.015081327409 0.013584815897
          0.2408567369 0.48855853081 0.43146586418 0.23825715482 0.011241047643 0.010632300749
          0.0030660519842 0.0031150870491 0.11402193457 0.11060094088 0.076294645667 0.31151366234
          0.34378799796 0.076415687799 0.16747921705 0.16591720283 0.19308887422 0.19943113625
          0.12461097538 0.12207883596 0.10494823009 0.14969208837 0.12276379764 0.079805061221
          0.19272367656 0.19743159413 0.29957678914 0.26868614554 0.25723591447 0.26525714993
          3.9472905655e-07 4.9750480002e-07 4.7329427844e-07 3.4935933968e-07 1.2531523907e-06 1.2665706208e-06
          0.42503228784 0.057554334402 0.056851048023 0.39523643255 0.79946184158 0.72206735611
          0.86039930582 0.8599858284 2.717895768e-05 5.6179167586e-05 6.1870305217e-05 2.69051543e-05
          2.6922800771e-06 2.7114640488e-06 3.0104985171e-07 2.2901119223e-07 4.6505275009e-07 5.0509703442e-07
          0.21788142622 0.027297427878 0.024385415018 0.21768413484 0.40841475129 0.4006023109
          0.024150894955 0.026949305087 0.46286678314 0.53980869055 0.52462482452 0.60261589289
          1.4147945642 1.5546224117 1.3315298557 1.234057188 7.6897458712e-07 3.0073986181e-06
          2.067641617e-06 8.554732176e-07 6.1281852481e-08 7.4179176579e-08 3.889884681e-08 3.912109392e-08
          4.8188604218e-09 3.9712229061e-09 2.0483368335e-09 1.6613046494e-09 5.1273563173e-09 4.6309169832e-09
          6.1996865419e-09 4.9482995479e-09 1.6888863641e-09 2.1161963293e-09 4.4630810159e-09 5.4643285452e-09
          5.2835962272e-09 4.4906567354e-09 2.0707799919e-09 2.0054782279e-09 4.6286889877e-09 6.2607368179e-09
          4.6466146486e-09 4.642295437e-09 1.7809670405e-09 1.3771094265e-09 3.834665474e-09 4.3063939081e-09
          2.8693982301e-08 4.109490348e-08 9.6799112725e-08 8.7689130623e-08 6.197973903e-07 7.269071034e-07
          5.3646800779e-07 5.3512877685e-07 2.6629419381e-07 2.6594972269e-07 1.6860566632e-07 1.5781701279e-07
          1.1864663207e-07 1.2179795306e-07 1.4555634209e-07 1.5103682927e-07 2.3814418171e-07 2.679446709e-07
          0.15121634305 0.13733260334 0.028860459104 0.039775308222 0.027609692886 0.0089603830129
          0.021856885403 0.023603959009 0.030411496758 0.029907776043 0.026601653546 0.037216376513
          0.15001395345 0.17307718098 0.1882635057 0.14102979004 0.16818475723 0.13700005412
          0.64469110966 0.64561355114 0.0033092582598 0.0028856047429 0.0013203375274 0.0012628911063
          8.5880732513e-05 6.2501443608e-05 4.4914384489e-05 3.7903624616e-05 5.5636187426e-06 4.6940222092e-06
          2.196579544e-06 2.0438212687e-06 6.1211453612e-06 5.693890671e-06 7.1761173785e-06 5.1178867579e-06
          1.9110527774e-06 2.4934456633e-06 5.2477262216e-06 6.1510645537e-06 6.2650956352e-06 4.7517678468e-06
          2.4617509098e-06 1.7363481675e-06 5.4567331063e-06 6.4979390118e-06 5.5948212321e-06 5.1867659749e-06
          1.9628394057e-06 2.6399618491e-06 4.6715304052e-06 5.1590936891e-06 3.951546023e-05 3.5493063478e-05
          7.6914810052e-05 7.9327895946e-05 0.00070092844544 0.00069134408841 0.00069553637877 0.00083265255671
          0.066402256489 0.24442797899 0.22302307189 0.26342576742 0.034185968339 0.15817224979
          0.22177790105 0.16858163476 0.26620483398 0.26458743215 0.27211257815 0.27606922388
          0.27762967348 0.10436223447 0.31452167034 1.0569405556 1.0789381266 0.96892929077
          0.07881321013 0.20113968849 0.24777677655 0.30480760336 0.25856146216 0.25669595599
          0.24575006962 0.16363738477 0.14293248951 0.10903751105 0.12707872689 0.24147182703
          0.071918018162 0.076538696885 0.25652748346 0.072867959738 0.080526739359 0.77777808905
          0.8126565218 0.75558620691 1.3455820084 1.4181143045 1.3948682547 1.3177962303
          1.2772808075 1.4221172333 1.3928340673 1.3041386604 0.00017245473282 0.00017878628569
          0.00018277365598 0.05152143538 0.054639361799 0.051778730005 0.0070018935949 0.0068543287925
          0.0060684690252 0.0051535037346 0.0041887690313 0.0031939435285 0.0021547258366 0.00097866915166
          0.00090510828886 0.003364210017 0.0082156835124 0.0070623503998 0.0066704223864 0.0058882394806
          0.0051829009317 0.0041505303234 0.0031226563733 0.0020547385793 0.00086290377658 0.0010576983914
          0.0041091660969 0.0073358598165 0.0042402311228 0.0043715620413 0.0040822839364 0.00014937928063
          0.00035323071643 0.0003356031375 0.00014848545834 0.00037669658195 0.00032703008037 3.543513958e-05
          2.4002025384e-05 3.3563377656e-05 2.3256719942e-05 2.0631965526e-05 1.6712365323e-05 1.4824760001e-05
          1.3310082068e-05 1.2367364434e-05 1.4690805983e-05 1.9299764972e-05 1.8655633539e-05 1.6171128664e-05
          1.4865595404e-05 1.3456107808e-05 1.2276508642e-05 1.7155871319e-05 0.049089089036 0.024214413017
          0.0033973830286 0.0091314055026 0.015933940187 0.020766424015 0.025069452822 0.0292919036
          0.032222528011 0.033686410636 0.014326731674 0.016959577799 0.016025774181 0.061504505575
          0.022147385404 0.0039789704606 0.0089601380751 0.015559949912 0.02070011571 0.025003137067
          0.028843695298 0.032730191946 0.033701922745 0.19982255995 0.20696662366 0.19517570734
          0.28274989128 0.28314527869 0.28992253542 0.2832467854 0.24686002731 0.23344372213
          0.22847947478 0.0065120542422 0.0079158926383 0.014620931819 0.019724480808 0.023960746825
          0.026525147259 0.02319386974 0.015233622864 0.031741503626 0.0040555866435 0.0079493867233
          0.01330931671 0.019069382921 0.023765366524 0.026786927134 0.024091530591 0.019453963265
          0.03643348068 0.0073134787381 0.0060225357302 0.0068432455882 0.002354527358 0.0031387975905
          0.0031546794344 0.0030131267849 0.0028671445325 0.0031208707951 0.33630007505 0.3871306777
          0.38475799561 0.33114120364 0.37877959013 0.34581825137 0.39303281903 0.24592763186
          0.24079558253 0.2357468009 0.0052631273866 0.0070768943988 0.013523397967 0.017973752692
          0.022747833282 0.027510168031 0.029318911955 0.027029382065 0.017602212727 0.030009426177
          0.003260597121 0.0080762598664 0.01270418521 0.0177171994 0.022547828034 0.026808572933
          0.029316779226 0.026666713879 0.022459892556 0.038756914437 0.0052172509022 0.0048614107072
          0.006020501256 0.0013402105542 0.0010467371903 0.0026705691125 0.0012843606528 0.0010310320649
          0.0025546466932 0.0018110586097 0.0018523902399 0.0020695626736 0.0085093677044 0.0083578508347
          0.0090806977823 0.0087837586179 0.0079890796915 0.0069868369028 0.0059191095643 0.0048192469403
          0.0036770275328 0.00245985738 0.0016092731385 0.0075952783227 0.0078347157687 0.0088824033737
          0.0086452839896 0.0078897969797 0.0069113112986 0.0058599715121 0.0047535421327 0.0036898974795
          0.0025160280056 0.0015703761019 0.11921332777 0.11901061982 0.11718115211 0.092644281685
          0.24818053842 0.26757788658 0.2719899416 0.30387803912 0.060304179788 0.26771125197
          0.079420022666 0.10043933243 0.095478177071 0.028335236013 0.023716196418 0.012211119756
          0.025959162042 0.019929574803 0.011178111658 0.10807339847 0.084431760013 0.10756152123
          0.12647694349 0.087007835507 0.12141762674 0.053133960813 0.057460956275 0.10136625916
          0.050818316638 0.033684037626 0.04442467168 0.2614248395 0.11132745445 0.28631982207
          0.12071490288 0.030351391062 0.001795759541 0.015888195485 0.028121054173 0.002611604752
          0.031931463629 0.16770415008 0.11179485172 0.14063175023 0.073604553938 0.12004753202
          0.30071395636 0.075312778354 0.11956137419 0.30738693476 0.32420966029 0.31016764045
          0.29558902979 0.37872809172 0.36873036623 0.38805726171 0.36265149713 0.26729556918
          0.23661765456 0.26413226128 8.8854676505e-08 3.9855009959e-08 8.3483854496e-08 3.6491348965e-07
          4.7169308459e-07 3.6128014358e-07 9.591782657e-08 3.4925989212e-08 7.8431362738e-08 3.0734784673e-07
          3.1037632198e-07 2.7522602863e-07 2.5642353307e-07 2.8768806715e-07 1.0490284694e-06 1.0818612282e-06
          9.1590015927e-07 1.0679368643e-06 1.0841781659e-06 0.091750606894 0.083778522909 0.037792343646
          0.013209840283 0.04253488034 0.0712447837 0.094442568719 0.041194096208 0.047849729657
          0.051041327417 0.11840078235 0.082935586572 0.042147714645 0.016548361629 0.039228148758
          0.074789203703 0.096979476511 0.3757275939 0.36322194338 0.3618862927 0.9804046154
          0.85411953926 0.95318728685 0.85534715652 0.80579715967 0.74420237541 0.79738306999
          1.0912957191 0.96415370703 0.72352188826 0.45935532451 0.22380280495 0.23347787559
          1.0892688036 0.93270593882 0.75604557991 0.50541114807 0.2222417742 0.24815575778
          0.6920799613 0.71149361134 0.67110329866 0.023886958137 0.063893735409 0.053612574935
          0.024806559086 0.059407934546 0.051612451673 1.1446846656e-05 1.1787252333e-05 1.0539701179e-05
          9.6744606708e-06 9.6281282822e-06 1.2427790352e-05 4.8987181799e-05 5.7464207202e-05 5.5640120991e-05
          1.2441547369e-05 1.1605868167e-05 1.0807380022e-05 1.0186855434e-05 1.0050707715e-05 1.5974868802e-05
          1.5078428078e-05 1.3759398826e-05 1.6297570255e-05 5.0418493629e-06 1.0748135537e-05 1.9741459255e-05
          5.0318913054e-06 1.1072374036e-05 2.0173567464e-05 1.6542733192e-06 1.6824061504e-06 1.5389238115e-06
          1.3687557043e-07 2.7038109351e-07 7.792726251e-07 1.3808909216e-07 2.9389792644e-07 8.2336777041e-07
          2.0817797974e-07 1.7960741161e-07 1.8897456755e-07 4.1520806349e-07 4.3839594355e-07 4.4785369369e-07
          0.040156457573 0.017133623362 0.0090260403231 0.019890550524 0.027691962197 0.034174066037
          0.039098020643 0.042347315699 0.043892644346 0.021246181801 0.022084139287 0.020343754441
          0.060593340546 0.014071237296 0.0065447599627 0.019435234368 0.027266977355 0.033480983227
          0.037702299654 0.041779242456 0.041956279427 0.22239857912 0.21455280483 0.23192690313
          0.45804798603 0.38506546617 0.46862572432 0.38527196646 0.47204506397 0.48771038651
          0.46165040135 0.050363920629 0.028171725571 0.019162828103 0.049482945353 0.07199767977
          0.090061224997 0.11502043158 0.058750092983 0.027453856543 0.018214182928 0.042590662837
          0.070168808103 0.10161361098 0.097217947245 0.03186661005 0.030013948679 0.035590205342
          0.0025543745141 0.0014719503233 0.0020264275372 0.0027327751741 0.0014706506627 0.0021933857352
          1.3278613091 1.2910238504 1.0468201637 0.8316565156 0.59003424644 0.36372232437
          0.27751937509 0.3848888576 0.27099817991 1.4039474726 1.269808054 1.086304903
          0.87175118923 0.5677562952 0.3258870244 0.68798691034 0.85963445902 0.69033181667
          1.4371113777 1.5461390018 1.6811140776 1.5023485422 1.3579515219 1.3822965622
          1.3511266708 1.6461076736 1.592615962 1.579620719 1.4855469465 1.370118022
          1.5804116726 1.5971367359 1.5817526579 1.5004804134 1.3595103025 1.0180472136
          0.88380807638 0.93948024511 0.18691597879 0.088938400149 0.17891912162 0.18272727728
          0.075795613229 0.21027961373 1.4246206774e-06 1.2581941746e-06 1.2662040945e-06 4.7439493756e-07
          3.1970216696e-07 3.961870334e-07 1.4432943374e-07 1.4009675908e-07 1.9284035702e-08 1.5266250486e-08
          1.6121740387e-08 2.4365653939e-09 1.2441260244e-09 2.1083006452e-09 1.4779054647e-09 1.1329212013e-09
          1.0242857673e-09 2.96596947e-09 1.3471528337e-09 1.7354919724e-09 4.2867958072e-09 2.9174673788e-09
          3.0322635514e-09 1.0972286413e-09 1.6287790006e-09 1.1348750828e-09 2.466653326e-09 2.5829351991e-09
          2.4075443861e-09 2.4345585548e-09 2.1089352487e-09 2.2434212266e-09 1.1066988437e-09 1.3338044003e-09
          7.8920886493e-10 2.8487161519e-09 2.6658950603e-09 3.4838907315e-09 1.3990943959e-09 1.175193054e-09
          2.9267885893e-09 5.7063220815e-10 8.5160728469e-10 1.277755568e-09 1.8925541134e-09 1.9977035581e-09
          2.3475028588e-09 2.5474134802e-08 2.6145729137e-08 2.2019586154e-08 2.3650275693e-07 2.1314755827e-07
          2.1904267555e-07 2.5404341386e-07 2.7274828085e-07 3.2385665349e-07 3.2415334772e-07 3.3070452332e-07
          1.8729977569e-07 3.9434151944e-08 2.1542979312e-07 1.9174294152e-07 4.24777582e-08 2.123212397e-07
          1.774440932e-07 1.723226859e-07 1.9337934987e-07 1.2971337071e-07 1.3776869423e-07 1.3643486341e-07
          8.2853311767e-08 6.7304945617e-08 8.8548212318e-08 1.4910396828e-07 1.5711960089e-07 1.5907744455e-07
          2.0450467275e-07 2.0395717115e-07 1.8594329276e-07 0.16010916233 0.11583922058 0.071877658367
          0.048275198787 0.030182117596 0.026141382754 0.031639643013 0.018651731312 0.062406934798
          0.087540626526 0.11353435367 0.49656939507 0.49926528335 0.081301927567 0.30114388466
          0.22114577889 0.049970436841 0.0086431354284 0.0022110966966 0.0066242218018 0.010242874734
          0.0020784025546 0.0060277990997 0.0068915723823 0.0013132507447 0.0015963602345 0.0013094770256
          0.0003242669336 7.0790294558e-05 2.3707239961e-05 7.7382501331e-06 2.2967262794e-06 8.2534739931e-07
          0.17138838768 0.070037089288 0.06794218719 0.052596665919 0.033340405673 0.02668318525
          0.037422828376 0.018702847883 0.059298481792 0.08221322298 0.10781611502 0.51454675198
          0.53338623047 0.07215487957 0.30276226997 0.21990734339 0.049798619002 0.011064222082
          0.0023694450501 0.0064080879092 0.010229382664 0.0019688841421 0.0060621141456 0.0062270960771
          0.00099954009056 0.0016242784914 0.001366907265 0.00032525110873 7.1675465733e-05 2.4246603061e-05
          7.7972908912e-06 2.2600422653e-06 8.1493186599e-07 0.090724430978 0.062507845461 0.092228151858
          0.02453272976 0.034664086998 0.035161942244 0.018712898716 0.019269779325 0.0146718584
          0.027449097484 0.040423657745 0.034736417234 0.14060682058 0.1816162914 0.29341238737
          0.36965894699 0.31578156352 0.33248138428 0.36429098248 0.20981770754 0.12326000631
          0.23546469212 0.20341825485 0.3430339992 0.4004701972 1.0600981712 1.7773942947
          0.82807958126 0.57568347454 0.22598256171 0.70888972282 0.80742698908 0.64169663191
          0.39109832048 0.32474842668 0.30619373918 0.24991421402 0.28713992238 0.33916148543
          0.21214897931 0.24350175261 0.11863803864 0.15450999141 0.18115055561 0.30122199655
          0.36971071362 0.31921130419 0.33556225896 0.35945960879 0.20709389448 0.12434895337
          0.23990896344 0.21241767704 0.33661183715 0.38458329439 1.189060688 1.9228525162
          1.0417521 0.59694778919 0.31187269092 0.70739138126 0.76917076111 0.62878465652
          0.36652553082 0.32956397533 0.28858456016 0.24363288283 0.29536777735 0.34178975224
          0.2080527097 0.25930583477 0.13261179626 0.0080264415592 0.014303188771 0.07053181529
          0.0024850941263 0.0024767473806 0.0021360919345 0.0011976659298 0.00098443741444 0.00092986965319
          0.00016139898798 2.4975659471e-05 1.7633004973e-05 1.644088843e-05 3.1244849197e-06 3.6512524275e-06
          3.3973817608e-06 2.5300109883e-06 1.0174895806e-06 6.0140320102e-07 3.8681514525e-06 3.4230381516e-06
          3.2542261579e-06 4.6578543333e-06 3.6367398479e-06 3.1226327337e-06 1.190258331e-06 2.2419833385e-06
          1.6530983658e-06 2.7305727599e-06 2.0027252958e-06 3.0038129353e-06 2.9332215945e-06 2.5438187095e-06
          2.6404586606e-06 1.3374140053e-06 1.6575396558e-06 1.1783529317e-06 3.4231818518e-06 2.9473408176e-06
          4.6720215323e-06 1.639772222e-06 1.451645403e-06 3.0461080769e-06 5.9519106799e-07 8.9533813252e-07
          1.4826287043e-06 2.1817420475e-06 2.1448909138e-06 2.7985558972e-06 3.6148339859e-05 3.6623041524e-05
          3.1580897485e-05 0.00027017350658 0.0003643980599 0.00034506697557 0.00035172520438 0.00045382781536
          0.00046784139704 0.00043124982039 6.8988370003e-06 2.2418927983e-05 6.1824968725e-05 0.00022579007782
          9.0059693321e-06 2.3402852094e-05 6.7069195211e-05 0.0002341579675 0.039536952972 0.055589623749
          0.030193181708 0.29215717316 0.29676759243 0.25918781757 0.19342035055 0.52223742008
          0.57506287098 0.35932117701 0.11834014952 0.15662869811 0.22243437171 0.031738813967
          0.064064025879 0.020719433203 0.076692275703 0.052756659687 0.078453622758 0.20912922919
          0.042673759162 0.16604669392 1.6137061119 1.5371696949 1.531935215 1.6389722824
          1.5421366692 1.5781972408 1.5659360886 1.5997031927 1.5673837662 1.7063310146
          1.6677043438 1.5661044121 0.0073586981744 0.0065494445153 0.0057198693976 0.004698570352
          0.0037022982724 0.002709234599 0.0017473426415 0.0010496395407 0.0015880343271 0.0030333294999
          0.0045626480132 0.0017490999307 0.0045709041879 0.0075551480986 0.0068637155928 0.0057604135945
          0.0047021391802 0.0036824939307 0.0026674729306 0.0016915893648 0.0010589469457 0.0018882763106
          0.0035104237031 0.0073118493892 0.0065516228788 0.0052916333079 0.0042099924758 0.00320128561
          0.0022890234832 0.0016234166687 0.0016879758332 0.0022445090581 0.0036360244267 8.6910942628e-05
          0.00028524443042 0.00077384355245 0.00071282329736 0.00026393655571 0.00072655006079 0.00026604681625
          7.2027396527e-05 0.00019064081425 9.1669673566e-05 1.6423398847e-05 1.5314502889e-05 1.5002609871e-05
          1.4118448235e-05 1.3130075786e-05 1.1879112208e-05 2.1185658625e-05 1.8623735741e-05 2.1166350052e-05
          2.4154764105e-05 1.5214484847e-05 1.4794626622e-05 1.4051958715e-05 1.3092819245e-05 1.230736143e-05
          2.9421657018e-05 1.6226558728e-05 1.4034097148e-05 1.3331413356e-05 1.2768862689e-05 1.2174897165e-05
          0.0090023530647 0.010386625305 0.01011168398 0.01214293018 0.016552923247 0.020958693698
          0.025469584391 0.029551336542 0.033680059016 0.038479231298 0.037972796708 0.037518836558
          0.010035613552 0.013234281912 0.010815993883 0.01199922245 0.01640448533 0.020838523284
          0.025461578742 0.02988281846 0.033565349877 0.018577609211 0.018403535709 0.014192490838
          0.015051783994 0.018462911248 0.02285040915 0.027675967664 0.031254716218 0.03332336247
          0.28744423389 0.28666552901 0.29540365934 0.292663306 0.28951972723 0.29182800651
          0.0098950043321 0.01148651354 0.016104741022 0.021122388542 0.026636376977 0.033955596387
          0.042353007942 0.050835072994 0.065514490008 0.072210490704 0.05294771865 0.0082613620907
          0.011173941195 0.015633173287 0.020792422816 0.026563994586 0.034357953817 0.04456109181
          0.053718365729 0.0091869104654 0.0137886554 0.018620189279 0.024388467893 0.032505158335
          0.043772827834 0.055682677776 0.05308797583 0.0035175913945 0.00027435223456 0.0037162201479
          0.0018383413553 0.0015963771148 0.002703549806 0.0024728085846 0.0033974933904 0.0008486706065
          0.0027684355155 0.34628739953 0.42608496547 0.42039561272 0.42098632455 0.34478956461
          0.36771932244 0.0080840885639 0.010295538232 0.014338892885 0.018656671047 0.023456834257
          0.028745876625 0.035231407732 0.042731713504 0.052497178316 0.060226600617 0.054880768061
          0.056317895651 0.0069863386452 0.01029259339 0.014170567505 0.018526621163 0.023454248905
          0.028802074492 0.035600654781 0.045196048915 0.054271373898 0.0077475961298 0.012147243135
          0.016407709569 0.020982131362 0.026380257681 0.033673793077 0.044319603592 0.056205909699
          0.052640412003 0.00069975521183 0.00081365182996 0.0025533812586 0.001844677492 0.00079331028974
          0.0024873276707 0.00070391257759 0.00078547932208 0.00069917266956 0.00060059491079 0.019080288708
          0.010181061924 0.0095948372036 0.0085477763787 0.0075157601386 0.006491066888 0.0054708700627
          0.0044723898172 0.0035272396635 0.0026856549084 0.0025496212766 0.0021011244971 0.0025943792425
          0.019849618897 0.011322453618 0.0097570521757 0.0085128806531 0.0074758208357 0.0064589208923
          0.0054485644214 0.0043641580269 0.0034663951956 0.0028413024265 0.02514292486 0.011900530197
          0.0096177337691 0.0081379618496 0.0070054191165 0.0059836166911 0.0050143674016 0.0040423586033
          0.0036378158256 0.0028028662782 0.03829235211 0.26935347915 0.1499068439 0.23750159144
          0.076086610556 0.10324467719 0.032611180097 0.0084202568978 0.026572057977 0.011915270239
          0.020249923691 0.024103621021 0.018582949415 0.030044225976 0.0087964609265 0.023527935147
          0.25113737583 0.084812618792 0.11043625325 0.086506918073 0.25351977348 0.30877023935
          0.053449060768 0.07937951386 0.29382961988 0.21398948133 0.29143467546 0.12643483281
          0.068850703537 0.12803246081 0.051205579191 0.067298404872 0.39357614517 0.35981115699
          0.35459890962 0.36437550187 0.40139791369 0.40157982707 7.1331385243e-08 9.6426219898e-08
          2.1300719411e-08 1.3005032429e-07 6.8772294526e-08 9.1810548497e-08 8.0316411299e-08 7.1007853819e-08
          3.2419503526e-08 8.3217955194e-08 2.410292268e-07 3.234510757e-07 2.4519468411e-07 9.2139805474e-07
          9.8068892385e-07 1.017035288e-06 9.9759893146e-07 0.07818607986 0.052491802722 0.021226769313
          0.013023802079 0.043248716742 0.07444550842 0.1014431566 0.10758979619 0.099135220051
          0.097503215075 0.055907230824 0.02415422909 0.012715646066 0.043885741383 0.074472390115
          0.11180789769 0.042442508042 0.0085565093905 0.030693240464 0.055249046534 0.074585348368
          0.93232470751 0.76267045736 0.80360072851 0.79591012001 0.94816082716 0.99148201942
          1.1572699547 0.93890750408 0.7232388258 0.51979625225 0.37101206183 0.40628924966
          0.44968906045 0.38367274404 1.1930866241 0.98571580648 0.75175601244 0.52408200502
          0.43549847603 1.1523668766 0.94570910931 0.66719394922 0.52838623524 0.47473341227
          0.015713889152 0.042114958167 0.13806240261 0.1159882322 0.040458984673 0.11850909144
          0.042375784367 0.0066315764561 0.032356671989 0.0094572864473 1.1634926523e-05 1.1231055396e-05
          1.0214036593e-05 9.0159892352e-06 7.4280278568e-06 6.562490853e-06 1.3100789147e-05 5.1162246564e-06
          1.1108514627e-05 1.1392889974e-05 1.0380248568e-05 9.2314785434e-06 7.881356396e-06 1.1762989743e-05
          1.1096033631e-05 9.5807099569e-06 8.3987606558e-06 8.5664132712e-06 5.0434632612e-06 9.8679647635e-06
          1.8815553631e-05 1.3153841792e-05 7.3047353908e-06 1.8114136765e-05 7.6274791354e-06 4.9289537856e-06
          7.8842549556e-06 4.6166483116e-06 1.4916194857e-07 3.4477872646e-07 9.3785712352e-07 1.0392747072e-06
          4.7281440629e-07 9.0729008662e-07 4.4356471562e-07 1.5083401195e-07 3.070447292e-07 1.4783898905e-07
          0.015912313014 0.017941555008 0.022162297741 0.024601509795 0.029247909784 0.034478154033
          0.039188198745 0.043828178197 0.049730394036 0.048522908241 0.047525078058 0.010558898561
          0.024011990055 0.023087481037 0.024431109428 0.028977770358 0.034232433885 0.039076179266
          0.043139051646 0.024644611403 0.031755976379 0.027914727107 0.028263445944 0.03180924058
          0.036733973771 0.040855940431 0.043139100075 0.46744325757 0.38336393237 0.41492456198
          0.39617824554 0.46932315826 0.50520354509 0.043552380055 0.01731332019 0.021952794865
          0.053277403116 0.08513430506 0.12209427357 0.1621388495 0.15305826068 0.16877703369
          0.053420819342 0.02231220156 0.020229242742 0.053350374103 0.087485954165 0.11737894267
          0.052223693579 0.014746734872 0.032814659178 0.071044690907 0.10291130096 0.11284327507
          0.0043733995408 0.0014325884404 0.0074032968841 0.0031656676438 0.0017777788453 0.0079080779105
          0.0019034624565 0.0039977720007 0.0015477843117 0.0037351043429 1.4587056637 1.2654693127
          1.0628740788 0.84799587727 0.63290041685 0.53155684471 0.43756201863 0.55903464556
          1.4997031689 1.3177648783 1.0810214281 0.83971005678 0.65072792768 1.5829621553
          1.2817687988 0.97037512064 0.8307107687 0.63080888987 1.2295075655 1.6627912521
          1.3100159168 1.7275944948 1.0100841522 1.6116673946 1.773643136 1.7167454958
          1.7249217033 1.7094577551 1.6328116655 1.6253643036 1.6566091776 1.7491896152
          1.7877157927 1.7592771053 1.757117033 1.7248667479 1.8215572834 1.8120539188
          1.7832716703 0.10990637541 0.065925605595 0.23479768634 0.17494413257 0.091099776328
          0.25868666172 0.083146370947 0.11758439988 0.073975279927 0.099067017436 6.2721071004e-08
          4.0164763959e-08 6.5375516556e-08 1.3310003055e-07 9.2476227564e-08 9.6945697692e-08 1.0937731787e-07
          3.7051282931e-08 1.0179378052e-07 1.0898725833e-07 8.5186350418e-08 1.0779397286e-07 2.1718456367e-08
          1.3671059662e-07 1.1221302998e-08 0.12288816273 0.068285301328 0.061839301139 0.011396236718
          0.028750360012 0.027159128338 0.01447157748 0.0097652021796 0.042833805084 0.018329180777
          0.11950766295 0.29479086399 0.20213361084 0.067368492484 0.14615593851 0.085748933256
          0.020657550544 0.0032889365684 0.0028406572528 0.0056493249722 0.0032489181031 0.0015377553646
          0.0041392352432 0.002137104515 0.00033675471786 0.00067451951327 0.00062133057509 9.5680326922e-05
          3.1681385735e-05 1.1611435184e-05 3.897069746e-06 1.2994285044e-06 3.769332011e-07 3.7282845256e-07
          4.7746158316e-07 0.12849543989 0.05313045159 0.070262089372 0.0097630443051 0.029625661671
          0.029890654609 0.020695166662 0.010487714782 0.042897734791 0.022180907428 0.10901385546
          0.2758782506 0.19235518575 0.070814363658 0.11979772896 0.1042489782 0.021727282554
          0.0039154058322 0.0030339234509 0.0056515526958 0.0030230295379 0.0012719152728 0.0039694835432
          0.001854195958 0.00024431684869 0.00076134962728 0.00062049215194 0.00011374646419 3.2203726732e-05
          1.1462880138e-05 3.756410706e-06 1.3932809679e-06 0.12225276977 0.070659518242 0.057311255485
          0.041601326317 0.022492242977 0.018437441438 0.0037123630755 0.020429493859 0.037959098816
          0.058521632105 0.20133909583 0.22758989036 0.045706469566 0.086236827075 0.14299418032
          0.035918042064 0.011339426041 0.0041341600008 0.0037496071309 0.0051701101474 0.0011156072142
          0.002841864014 0.0027888829354 0.00063274166314 0.00040070471005 0.0008365540416 0.00021528473007
          5.0238664699e-05 2.0404013412e-05 7.0213018262e-06 2.4011389996e-06 9.5074011597e-07 6.5758349592e-06
          2.1324318368e-05 5.2769850299e-05 0.00017398306227 0.00018769036978 0.00013454511645 5.5844343478e-06
          1.8342228941e-05 5.6408120145e-05 5.3722501434e-06 2.0530655092e-05 7.3766852438e-05 0.23174723983
          0.24335642159 0.24504172802 0.20880153775 0.12736448646 0.0085739009082 0.0026936165523
          0.0014302465133 0.00089890853269 0.00043101934716 0.061343334615 0.046275734901 0.079816803336
          0.1098331809 3.3737374906e-05 1.0088032468e-05 3.4187078199e-06 1.3770463738e-06 8.2866426965e-07
          8.2040543248e-09 6.1606129087e-09 1.0263377703e-08 1.5672364739e-08 1.5205472437e-08 1.4988861707e-08
          1.6051197704e-08 1.0662097871e-08 5.6268474324e-09 6.5228422663e-09 0.0082715610042 0.015648078173
          0.07322190702 0.2013618201 0.00011742499919 0.00018067222845 9.4708420875e-06 6.6166267061e-06
          1.2329255696e-05 1.8777644073e-05 1.8551276298e-05 1.7601270883e-05 1.7870599549e-05 1.1874753e-05
          6.6593615884e-06 8.5456758825e-06 0.00027422702988 0.00014384022506 0.22763010859 0.21103386581
          0.29803985357 0.31530880928 0.38909509778 0.40164679289 0.32834139466 0.29226917028
          0.31754177809 0.31904232502 0.3095009625 0.35641860962 0.16607387364 0.12926322222
          0.15902382135 0.15238593519 0.15885001421 0.12885537744 0.13663472235 0.15852679312
          0.22057509422 0.19544956088 3.5180536262e-09 3.7454852553e-09 2.7765769683e-09 6.9416099535e-09
          5.7627618233e-09 6.0624611997e-09 5.6452780228e-09 6.6146363942e-09 5.5822679812e-09 5.4685149742e-09
          5.7186921865e-09 2.5450910268e-09 3.1102718179e-09 3.0280011831e-09 5.7679426391e-05 6.1160775658e-05
          0.00014302189811 5.9629946918e-05 4.2669212235e-06 4.5967003643e-06 3.0993599012e-06 6.5110280048e-06
          8.0749441622e-06 7.1452141128e-06 7.5613415902e-06 6.4443611336e-06 6.7288788159e-06 7.9812798504e-06
          7.3135220191e-06 3.0546032121e-06 3.7459146824e-06 5.8116638684e-06 0.00015734430053 0.00012386527669
          0.0001113147373 0.00015969201922 0.0086903134361 0.0026076706126 0.0016578290379 0.001230538357
          0.00091838045046 0.00047775055282 3.5316319554e-05 1.0306183867e-05 3.8716643758e-06 1.4085129578e-06